 LAMMPS data file

 300 atoms
 300 ellipsoids
 300 bonds
 600 angles

 1 atom types
 1 bond types
 2 angle types

 -50 50 xlo xhi
 -50 50 ylo yhi
 -50 50 zlo zhi


 Masses

1 1

 Atoms

 1 1 47.7465 0 0 1 1 1.90986
 2 1 47.736 0.999927 0 1 1 1.90986
 3 1 47.7046 1.99942 0 1 1 1.90986
 4 1 47.6523 2.99803 0 1 1 1.90986
 5 1 47.579 3.99532 0 1 1 1.90986
 6 1 47.4849 4.99087 0 1 1 1.90986
 7 1 47.37 5.98422 0 1 1 1.90986
 8 1 47.2343 6.97495 0 1 1 1.90986
 9 1 47.0778 7.96262 0 1 1 1.90986
 10 1 46.9008 8.9468 0 1 1 1.90986
 11 1 46.7031 9.92705 0 1 1 1.90986
 12 1 46.485 10.903 0 1 1 1.90986
 13 1 46.2464 11.8741 0 1 1 1.90986
 14 1 45.9876 12.84 0 1 1 1.90986
 15 1 45.7086 13.8003 0 1 1 1.90986
 16 1 45.4096 14.7545 0 1 1 1.90986
 17 1 45.0907 15.7022 0 1 1 1.90986
 18 1 44.7519 16.6431 0 1 1 1.90986
 19 1 44.3936 17.5767 0 1 1 1.90986
 20 1 44.0157 18.5025 0 1 1 1.90986
 21 1 43.6186 19.4202 0 1 1 1.90986
 22 1 43.2023 20.3295 0 1 1 1.90986
 23 1 42.7671 21.2298 0 1 1 1.90986
 24 1 42.3131 22.1208 0 1 1 1.90986
 25 1 41.8406 23.002 0 1 1 1.90986
 26 1 41.3497 23.8732 0 1 1 1.90986
 27 1 40.8406 24.734 0 1 1 1.90986
 28 1 40.3137 25.5838 0 1 1 1.90986
 29 1 39.7691 26.4225 0 1 1 1.90986
 30 1 39.207 27.2496 0 1 1 1.90986
 31 1 38.6277 28.0647 0 1 1 1.90986
 32 1 38.0315 28.8675 0 1 1 1.90986
 33 1 37.4186 29.6576 0 1 1 1.90986
 34 1 36.7893 30.4348 0 1 1 1.90986
 35 1 36.1439 31.1985 0 1 1 1.90986
 36 1 35.4826 31.9486 0 1 1 1.90986
 37 1 34.8057 32.6847 0 1 1 1.90986
 38 1 34.1136 33.4065 0 1 1 1.90986
 39 1 33.4065 34.1136 0 1 1 1.90986
 40 1 32.6847 34.8057 0 1 1 1.90986
 41 1 31.9486 35.4826 0 1 1 1.90986
 42 1 31.1985 36.1439 0 1 1 1.90986
 43 1 30.4348 36.7893 0 1 1 1.90986
 44 1 29.6576 37.4186 0 1 1 1.90986
 45 1 28.8675 38.0315 0 1 1 1.90986
 46 1 28.0647 38.6277 0 1 1 1.90986
 47 1 27.2496 39.207 0 1 1 1.90986
 48 1 26.4225 39.7691 0 1 1 1.90986
 49 1 25.5838 40.3137 0 1 1 1.90986
 50 1 24.734 40.8406 0 1 1 1.90986
 51 1 23.8732 41.3497 0 1 1 1.90986
 52 1 23.002 41.8406 0 1 1 1.90986
 53 1 22.1208 42.3131 0 1 1 1.90986
 54 1 21.2298 42.7671 0 1 1 1.90986
 55 1 20.3295 43.2023 0 1 1 1.90986
 56 1 19.4202 43.6186 0 1 1 1.90986
 57 1 18.5025 44.0157 0 1 1 1.90986
 58 1 17.5767 44.3936 0 1 1 1.90986
 59 1 16.6431 44.7519 0 1 1 1.90986
 60 1 15.7022 45.0907 0 1 1 1.90986
 61 1 14.7545 45.4096 0 1 1 1.90986
 62 1 13.8003 45.7086 0 1 1 1.90986
 63 1 12.84 45.9876 0 1 1 1.90986
 64 1 11.8741 46.2464 0 1 1 1.90986
 65 1 10.903 46.485 0 1 1 1.90986
 66 1 9.92705 46.7031 0 1 1 1.90986
 67 1 8.9468 46.9008 0 1 1 1.90986
 68 1 7.96262 47.0778 0 1 1 1.90986
 69 1 6.97495 47.2343 0 1 1 1.90986
 70 1 5.98422 47.37 0 1 1 1.90986
 71 1 4.99087 47.4849 0 1 1 1.90986
 72 1 3.99532 47.579 0 1 1 1.90986
 73 1 2.99803 47.6523 0 1 1 1.90986
 74 1 1.99942 47.7046 0 1 1 1.90986
 75 1 0.999927 47.736 0 1 1 1.90986
 76 1 8.77384e-14 47.7465 0 1 1 1.90986
 77 1 -0.999927 47.736 0 1 1 1.90986
 78 1 -1.99942 47.7046 0 1 1 1.90986
 79 1 -2.99803 47.6523 0 1 1 1.90986
 80 1 -3.99532 47.579 0 1 1 1.90986
 81 1 -4.99087 47.4849 0 1 1 1.90986
 82 1 -5.98422 47.37 0 1 1 1.90986
 83 1 -6.97495 47.2343 0 1 1 1.90986
 84 1 -7.96262 47.0778 0 1 1 1.90986
 85 1 -8.9468 46.9008 0 1 1 1.90986
 86 1 -9.92705 46.7031 0 1 1 1.90986
 87 1 -10.903 46.485 0 1 1 1.90986
 88 1 -11.8741 46.2464 0 1 1 1.90986
 89 1 -12.84 45.9876 0 1 1 1.90986
 90 1 -13.8003 45.7086 0 1 1 1.90986
 91 1 -14.7545 45.4096 0 1 1 1.90986
 92 1 -15.7022 45.0907 0 1 1 1.90986
 93 1 -16.6431 44.7519 0 1 1 1.90986
 94 1 -17.5767 44.3936 0 1 1 1.90986
 95 1 -18.5025 44.0157 0 1 1 1.90986
 96 1 -19.4202 43.6186 0 1 1 1.90986
 97 1 -20.3295 43.2023 0 1 1 1.90986
 98 1 -21.2298 42.7671 0 1 1 1.90986
 99 1 -22.1208 42.3131 0 1 1 1.90986
 100 1 -23.002 41.8406 0 1 1 1.90986
 101 1 -23.8732 41.3497 0 1 1 1.90986
 102 1 -24.734 40.8406 0 1 1 1.90986
 103 1 -25.5838 40.3137 0 1 1 1.90986
 104 1 -26.4225 39.7691 0 1 1 1.90986
 105 1 -27.2496 39.207 0 1 1 1.90986
 106 1 -28.0647 38.6277 0 1 1 1.90986
 107 1 -28.8675 38.0315 0 1 1 1.90986
 108 1 -29.6576 37.4186 0 1 1 1.90986
 109 1 -30.4348 36.7893 0 1 1 1.90986
 110 1 -31.1985 36.1439 0 1 1 1.90986
 111 1 -31.9486 35.4826 0 1 1 1.90986
 112 1 -32.6847 34.8057 0 1 1 1.90986
 113 1 -33.4065 34.1136 0 1 1 1.90986
 114 1 -34.1136 33.4065 0 1 1 1.90986
 115 1 -34.8057 32.6847 0 1 1 1.90986
 116 1 -35.4826 31.9486 0 1 1 1.90986
 117 1 -36.1439 31.1985 0 1 1 1.90986
 118 1 -36.7893 30.4348 0 1 1 1.90986
 119 1 -37.4186 29.6576 0 1 1 1.90986
 120 1 -38.0315 28.8675 0 1 1 1.90986
 121 1 -38.6277 28.0647 0 1 1 1.90986
 122 1 -39.207 27.2496 0 1 1 1.90986
 123 1 -39.7691 26.4225 0 1 1 1.90986
 124 1 -40.3137 25.5838 0 1 1 1.90986
 125 1 -40.8406 24.734 0 1 1 1.90986
 126 1 -41.3497 23.8732 0 1 1 1.90986
 127 1 -41.8406 23.002 0 1 1 1.90986
 128 1 -42.3131 22.1208 0 1 1 1.90986
 129 1 -42.7671 21.2298 0 1 1 1.90986
 130 1 -43.2023 20.3295 0 1 1 1.90986
 131 1 -43.6186 19.4202 0 1 1 1.90986
 132 1 -44.0157 18.5025 0 1 1 1.90986
 133 1 -44.3936 17.5767 0 1 1 1.90986
 134 1 -44.7519 16.6431 0 1 1 1.90986
 135 1 -45.0907 15.7022 0 1 1 1.90986
 136 1 -45.4096 14.7545 0 1 1 1.90986
 137 1 -45.7086 13.8003 0 1 1 1.90986
 138 1 -45.9876 12.84 0 1 1 1.90986
 139 1 -46.2464 11.8741 0 1 1 1.90986
 140 1 -46.485 10.903 0 1 1 1.90986
 141 1 -46.7031 9.92705 0 1 1 1.90986
 142 1 -46.9008 8.9468 0 1 1 1.90986
 143 1 -47.0778 7.96262 0 1 1 1.90986
 144 1 -47.2343 6.97495 0 1 1 1.90986
 145 1 -47.37 5.98422 0 1 1 1.90986
 146 1 -47.4849 4.99087 0 1 1 1.90986
 147 1 -47.579 3.99532 0 1 1 1.90986
 148 1 -47.6523 2.99803 0 1 1 1.90986
 149 1 -47.7046 1.99942 0 1 1 1.90986
 150 1 -47.736 0.999927 0 1 1 1.90986
 151 1 -47.7465 1.75477e-13 0 1 1 1.90986
 152 1 -47.736 -0.999927 0 1 1 1.90986
 153 1 -47.7046 -1.99942 0 1 1 1.90986
 154 1 -47.6523 -2.99803 0 1 1 1.90986
 155 1 -47.579 -3.99532 0 1 1 1.90986
 156 1 -47.4849 -4.99087 0 1 1 1.90986
 157 1 -47.37 -5.98422 0 1 1 1.90986
 158 1 -47.2343 -6.97495 0 1 1 1.90986
 159 1 -47.0778 -7.96262 0 1 1 1.90986
 160 1 -46.9008 -8.9468 0 1 1 1.90986
 161 1 -46.7031 -9.92705 0 1 1 1.90986
 162 1 -46.485 -10.903 0 1 1 1.90986
 163 1 -46.2464 -11.8741 0 1 1 1.90986
 164 1 -45.9876 -12.84 0 1 1 1.90986
 165 1 -45.7086 -13.8003 0 1 1 1.90986
 166 1 -45.4096 -14.7545 0 1 1 1.90986
 167 1 -45.0907 -15.7022 0 1 1 1.90986
 168 1 -44.7519 -16.6431 0 1 1 1.90986
 169 1 -44.3936 -17.5767 0 1 1 1.90986
 170 1 -44.0157 -18.5025 0 1 1 1.90986
 171 1 -43.6186 -19.4202 0 1 1 1.90986
 172 1 -43.2023 -20.3295 0 1 1 1.90986
 173 1 -42.7671 -21.2298 0 1 1 1.90986
 174 1 -42.3131 -22.1208 0 1 1 1.90986
 175 1 -41.8406 -23.002 0 1 1 1.90986
 176 1 -41.3497 -23.8732 0 1 1 1.90986
 177 1 -40.8406 -24.734 0 1 1 1.90986
 178 1 -40.3137 -25.5838 0 1 1 1.90986
 179 1 -39.7691 -26.4225 0 1 1 1.90986
 180 1 -39.207 -27.2496 0 1 1 1.90986
 181 1 -38.6277 -28.0647 0 1 1 1.90986
 182 1 -38.0315 -28.8675 0 1 1 1.90986
 183 1 -37.4186 -29.6576 0 1 1 1.90986
 184 1 -36.7893 -30.4348 0 1 1 1.90986
 185 1 -36.1439 -31.1985 0 1 1 1.90986
 186 1 -35.4826 -31.9486 0 1 1 1.90986
 187 1 -34.8057 -32.6847 0 1 1 1.90986
 188 1 -34.1136 -33.4065 0 1 1 1.90986
 189 1 -33.4065 -34.1136 0 1 1 1.90986
 190 1 -32.6847 -34.8057 0 1 1 1.90986
 191 1 -31.9486 -35.4826 0 1 1 1.90986
 192 1 -31.1985 -36.1439 0 1 1 1.90986
 193 1 -30.4348 -36.7893 0 1 1 1.90986
 194 1 -29.6576 -37.4186 0 1 1 1.90986
 195 1 -28.8675 -38.0315 0 1 1 1.90986
 196 1 -28.0647 -38.6277 0 1 1 1.90986
 197 1 -27.2496 -39.207 0 1 1 1.90986
 198 1 -26.4225 -39.7691 0 1 1 1.90986
 199 1 -25.5838 -40.3137 0 1 1 1.90986
 200 1 -24.734 -40.8406 0 1 1 1.90986
 201 1 -23.8732 -41.3497 0 1 1 1.90986
 202 1 -23.002 -41.8406 0 1 1 1.90986
 203 1 -22.1208 -42.3131 0 1 1 1.90986
 204 1 -21.2298 -42.7671 0 1 1 1.90986
 205 1 -20.3295 -43.2023 0 1 1 1.90986
 206 1 -19.4202 -43.6186 0 1 1 1.90986
 207 1 -18.5025 -44.0157 0 1 1 1.90986
 208 1 -17.5767 -44.3936 0 1 1 1.90986
 209 1 -16.6431 -44.7519 0 1 1 1.90986
 210 1 -15.7022 -45.0907 0 1 1 1.90986
 211 1 -14.7545 -45.4096 0 1 1 1.90986
 212 1 -13.8003 -45.7086 0 1 1 1.90986
 213 1 -12.84 -45.9876 0 1 1 1.90986
 214 1 -11.8741 -46.2464 0 1 1 1.90986
 215 1 -10.903 -46.485 0 1 1 1.90986
 216 1 -9.92705 -46.7031 0 1 1 1.90986
 217 1 -8.9468 -46.9008 0 1 1 1.90986
 218 1 -7.96262 -47.0778 0 1 1 1.90986
 219 1 -6.97495 -47.2343 0 1 1 1.90986
 220 1 -5.98422 -47.37 0 1 1 1.90986
 221 1 -4.99087 -47.4849 0 1 1 1.90986
 222 1 -3.99532 -47.579 0 1 1 1.90986
 223 1 -2.99803 -47.6523 0 1 1 1.90986
 224 1 -1.99942 -47.7046 0 1 1 1.90986
 225 1 -0.999927 -47.736 0 1 1 1.90986
 226 1 -2.63215e-13 -47.7465 0 1 1 1.90986
 227 1 0.999927 -47.736 0 1 1 1.90986
 228 1 1.99942 -47.7046 0 1 1 1.90986
 229 1 2.99803 -47.6523 0 1 1 1.90986
 230 1 3.99532 -47.579 0 1 1 1.90986
 231 1 4.99087 -47.4849 0 1 1 1.90986
 232 1 5.98422 -47.37 0 1 1 1.90986
 233 1 6.97495 -47.2343 0 1 1 1.90986
 234 1 7.96262 -47.0778 0 1 1 1.90986
 235 1 8.9468 -46.9008 0 1 1 1.90986
 236 1 9.92705 -46.7031 0 1 1 1.90986
 237 1 10.903 -46.485 0 1 1 1.90986
 238 1 11.8741 -46.2464 0 1 1 1.90986
 239 1 12.84 -45.9876 0 1 1 1.90986
 240 1 13.8003 -45.7086 0 1 1 1.90986
 241 1 14.7545 -45.4096 0 1 1 1.90986
 242 1 15.7022 -45.0907 0 1 1 1.90986
 243 1 16.6431 -44.7519 0 1 1 1.90986
 244 1 17.5767 -44.3936 0 1 1 1.90986
 245 1 18.5025 -44.0157 0 1 1 1.90986
 246 1 19.4202 -43.6186 0 1 1 1.90986
 247 1 20.3295 -43.2023 0 1 1 1.90986
 248 1 21.2298 -42.7671 0 1 1 1.90986
 249 1 22.1208 -42.3131 0 1 1 1.90986
 250 1 23.002 -41.8406 0 1 1 1.90986
 251 1 23.8732 -41.3497 0 1 1 1.90986
 252 1 24.734 -40.8406 0 1 1 1.90986
 253 1 25.5838 -40.3137 0 1 1 1.90986
 254 1 26.4225 -39.7691 0 1 1 1.90986
 255 1 27.2496 -39.207 0 1 1 1.90986
 256 1 28.0647 -38.6277 0 1 1 1.90986
 257 1 28.8675 -38.0315 0 1 1 1.90986
 258 1 29.6576 -37.4186 0 1 1 1.90986
 259 1 30.4348 -36.7893 0 1 1 1.90986
 260 1 31.1985 -36.1439 0 1 1 1.90986
 261 1 31.9486 -35.4826 0 1 1 1.90986
 262 1 32.6847 -34.8057 0 1 1 1.90986
 263 1 33.4065 -34.1136 0 1 1 1.90986
 264 1 34.1136 -33.4065 0 1 1 1.90986
 265 1 34.8057 -32.6847 0 1 1 1.90986
 266 1 35.4826 -31.9486 0 1 1 1.90986
 267 1 36.1439 -31.1985 0 1 1 1.90986
 268 1 36.7893 -30.4348 0 1 1 1.90986
 269 1 37.4186 -29.6576 0 1 1 1.90986
 270 1 38.0315 -28.8675 0 1 1 1.90986
 271 1 38.6277 -28.0647 0 1 1 1.90986
 272 1 39.207 -27.2496 0 1 1 1.90986
 273 1 39.7691 -26.4225 0 1 1 1.90986
 274 1 40.3137 -25.5838 0 1 1 1.90986
 275 1 40.8406 -24.734 0 1 1 1.90986
 276 1 41.3497 -23.8732 0 1 1 1.90986
 277 1 41.8406 -23.002 0 1 1 1.90986
 278 1 42.3131 -22.1208 0 1 1 1.90986
 279 1 42.7671 -21.2298 0 1 1 1.90986
 280 1 43.2023 -20.3295 0 1 1 1.90986
 281 1 43.6186 -19.4202 0 1 1 1.90986
 282 1 44.0157 -18.5025 0 1 1 1.90986
 283 1 44.3936 -17.5767 0 1 1 1.90986
 284 1 44.7519 -16.6431 0 1 1 1.90986
 285 1 45.0907 -15.7022 0 1 1 1.90986
 286 1 45.4096 -14.7545 0 1 1 1.90986
 287 1 45.7086 -13.8003 0 1 1 1.90986
 288 1 45.9876 -12.84 0 1 1 1.90986
 289 1 46.2464 -11.8741 0 1 1 1.90986
 290 1 46.485 -10.903 0 1 1 1.90986
 291 1 46.7031 -9.92705 0 1 1 1.90986
 292 1 46.9008 -8.9468 0 1 1 1.90986
 293 1 47.0778 -7.96262 0 1 1 1.90986
 294 1 47.2343 -6.97495 0 1 1 1.90986
 295 1 47.37 -5.98422 0 1 1 1.90986
 296 1 47.4849 -4.99087 0 1 1 1.90986
 297 1 47.579 -3.99532 0 1 1 1.90986
 298 1 47.6523 -2.99803 0 1 1 1.90986
 299 1 47.7046 -1.99942 0 1 1 1.90986
 300 1 47.736 -0.999927 0 1 1 1.90986

 Ellipsoids

 1 1 1 1 0.707097 -0.707097 -0.00370239 0.00370239
 2 1 1 1 0.701985 -0.704307 0.0628578 0.0849496
 3 1 1 1 0.687569 -0.695266 0.12886 0.165071
 4 1 1 1 0.66404 -0.680054 0.193718 0.243004
 5 1 1 1 0.631709 -0.658805 0.256857 0.317717
 6 1 1 1 0.591005 -0.631709 0.317717 0.388218
 7 1 1 1 0.542468 -0.599006 0.375756 0.453573
 8 1 1 1 0.48674 -0.560986 0.430459 0.512917
 9 1 1 1 0.424561 -0.517986 0.481342 0.565462
 10 1 1 1 0.356755 -0.470389 0.527953 0.610513
 11 1 1 1 0.28422 -0.418617 0.569877 0.647471
 12 1 1 1 0.207918 -0.363129 0.606744 0.675848
 13 1 1 1 0.12886 -0.304417 0.638224 0.695266
 14 1 1 1 0.0480941 -0.243004 0.66404 0.705469
 15 1 1 1 -0.0333093 -0.179434 0.683962 0.706322
 16 1 1 1 -0.114271 -0.114271 0.697812 0.697812
 17 1 1 1 -0.193718 -0.0480941 0.705469 0.680054
 18 1 1 1 -0.270598 0.0185099 0.706864 0.653281
 19 1 1 1 -0.343891 0.0849496 0.701985 0.61785
 20 1 1 1 -0.412626 0.150635 0.690876 0.57423
 21 1 1 1 -0.475892 0.214984 0.673633 0.522998
 22 1 1 1 -0.53285 0.277424 0.650412 0.464834
 23 1 1 1 -0.582745 0.337402 0.621418 0.40051
 24 1 1 1 -0.624917 0.394385 0.586907 0.330876
 25 1 1 1 -0.658805 0.447868 0.547188 0.256857
 26 1 1 1 -0.683962 0.497375 0.502611 0.179434
 27 1 1 1 -0.700052 0.542468 0.453573 0.0996322
 28 1 1 1 -0.706864 0.582745 0.40051 0.0185099
 29 1 1 1 -0.704307 0.61785 0.343891 -0.0628578
 30 1 1 1 -0.692415 0.647471 0.28422 -0.143392
 31 1 1 1 -0.671345 0.671345 0.222026 -0.222026
 32 1 1 1 -0.641377 0.68926 0.157862 -0.297717
 33 1 1 1 -0.602908 0.701057 0.092296 -0.369462
 34 1 1 1 -0.556447 0.706632 0.025911 -0.43631
 35 1 1 1 -0.502611 0.705934 -0.0407039 -0.497375
 36 1 1 1 -0.442113 0.698971 -0.106958 -0.551848
 37 1 1 1 -0.375756 0.685803 -0.172262 -0.599006
 38 1 1 1 -0.304417 0.666548 -0.236037 -0.638224
 39 1 1 1 -0.229044 0.641377 -0.297717 -0.668983
 40 1 1 1 -0.150635 0.610513 -0.356755 -0.690876
 41 1 1 1 -0.0702297 0.57423 -0.412626 -0.703611
 42 1 1 1 0.0111068 0.53285 -0.464834 -0.70702
 43 1 1 1 0.092296 0.48674 -0.512917 -0.701057
 44 1 1 1 0.172262 0.43631 -0.556447 -0.685803
 45 1 1 1 0.249944 0.382008 -0.595038 -0.661459
 46 1 1 1 0.324314 0.324314 -0.628347 -0.628347
 47 1 1 1 0.394385 0.263742 -0.656079 -0.586907
 48 1 1 1 0.459229 0.200829 -0.677988 -0.537688
 49 1 1 1 0.517986 0.136134 -0.693879 -0.481342
 50 1 1 1 0.569877 0.0702297 -0.703611 -0.418617
 51 1 1 1 0.614215 0.00370239 -0.707097 -0.350342
 52 1 1 1 0.650412 -0.0628578 -0.704307 -0.277424
 53 1 1 1 0.677988 -0.12886 -0.695266 -0.200829
 54 1 1 1 0.696577 -0.193718 -0.680054 -0.121572
 55 1 1 1 0.705934 -0.256857 -0.658805 -0.0407039
 56 1 1 1 0.705934 -0.317717 -0.631709 0.0407039
 57 1 1 1 0.696577 -0.375756 -0.599006 0.121572
 58 1 1 1 0.677988 -0.430459 -0.560986 0.200829
 59 1 1 1 0.650412 -0.481342 -0.517986 0.277424
 60 1 1 1 0.614215 -0.527953 -0.470389 0.350342
 61 1 1 1 0.569877 -0.569877 -0.418617 0.418617
 62 1 1 1 0.517986 -0.606744 -0.363129 0.481342
 63 1 1 1 0.459229 -0.638224 -0.304417 0.537688
 64 1 1 1 0.394385 -0.66404 -0.243004 0.586907
 65 1 1 1 0.324314 -0.683962 -0.179434 0.628347
 66 1 1 1 0.249944 -0.697812 -0.114271 0.661459
 67 1 1 1 0.172262 -0.705469 -0.0480941 0.685803
 68 1 1 1 0.092296 -0.706864 0.0185099 0.701057
 69 1 1 1 0.0111068 -0.701985 0.0849496 0.70702
 70 1 1 1 -0.0702297 -0.690876 0.150635 0.703611
 71 1 1 1 -0.150635 -0.673633 0.214984 0.690876
 72 1 1 1 -0.229044 -0.650412 0.277424 0.668983
 73 1 1 1 -0.304417 -0.621418 0.337402 0.638224
 74 1 1 1 -0.375756 -0.586907 0.394385 0.599006
 75 1 1 1 -0.442113 -0.547188 0.447868 0.551848
 76 1 1 1 0.502611 0.502611 -0.497375 -0.497375
 77 1 1 1 0.556447 0.453573 -0.542468 -0.43631
 78 1 1 1 0.602908 0.40051 -0.582745 -0.369462
 79 1 1 1 0.641377 0.343891 -0.61785 -0.297717
 80 1 1 1 0.671345 0.28422 -0.647471 -0.222026
 81 1 1 1 0.692415 0.222026 -0.671345 -0.143392
 82 1 1 1 0.704307 0.157862 -0.68926 -0.0628578
 83 1 1 1 0.706864 0.092296 -0.701057 0.0185099
 84 1 1 1 0.700052 0.025911 -0.706632 0.0996322
 85 1 1 1 0.683962 -0.0407039 -0.705934 0.179434
 86 1 1 1 0.658805 -0.106958 -0.698971 0.256857
 87 1 1 1 0.624917 -0.172262 -0.685803 0.330876
 88 1 1 1 0.582745 -0.236037 -0.666548 0.40051
 89 1 1 1 0.53285 -0.297717 -0.641377 0.464834
 90 1 1 1 0.475892 -0.356755 -0.610513 0.522998
 91 1 1 1 0.412626 -0.412626 -0.57423 0.57423
 92 1 1 1 0.343891 -0.464834 -0.53285 0.61785
 93 1 1 1 0.270598 -0.512917 -0.48674 0.653281
 94 1 1 1 0.193718 -0.556447 -0.43631 0.680054
 95 1 1 1 0.114271 -0.595038 -0.382008 0.697812
 96 1 1 1 0.0333093 -0.628347 -0.324314 0.706322
 97 1 1 1 -0.0480941 -0.656079 -0.263742 0.705469
 98 1 1 1 -0.12886 -0.677988 -0.200829 0.695266
 99 1 1 1 -0.207918 -0.693879 -0.136134 0.675848
 100 1 1 1 -0.28422 -0.703611 -0.0702297 0.647471
 101 1 1 1 -0.356755 -0.707097 -0.00370239 0.610513
 102 1 1 1 -0.424561 -0.704307 0.0628578 0.565462
 103 1 1 1 -0.48674 -0.695266 0.12886 0.512917
 104 1 1 1 -0.542468 -0.680054 0.193718 0.453573
 105 1 1 1 -0.591005 -0.658805 0.256857 0.388218
 106 1 1 1 -0.631709 -0.631709 0.317717 0.317717
 107 1 1 1 -0.66404 -0.599006 0.375756 0.243004
 108 1 1 1 -0.687569 -0.560986 0.430459 0.165071
 109 1 1 1 -0.701985 -0.517986 0.481342 0.0849496
 110 1 1 1 -0.707097 -0.470389 0.527953 0.00370239
 111 1 1 1 -0.702837 -0.418617 0.569877 -0.0775939
 112 1 1 1 -0.68926 -0.363129 0.606744 -0.157862
 113 1 1 1 -0.666548 -0.304417 0.638224 -0.236037
 114 1 1 1 -0.635001 -0.243004 0.66404 -0.311084
 115 1 1 1 -0.595038 -0.179434 0.683962 -0.382008
 116 1 1 1 -0.547188 -0.114271 0.697812 -0.447868
 117 1 1 1 -0.492085 -0.0480941 0.705469 -0.507792
 118 1 1 1 -0.430459 0.0185099 0.706864 -0.560986
 119 1 1 1 -0.363129 0.0849496 0.701985 -0.606744
 120 1 1 1 -0.290985 0.150635 0.690876 -0.644459
 121 1 1 1 -0.214984 0.214984 0.673633 -0.673633
 122 1 1 1 -0.136134 0.277424 0.650412 -0.693879
 123 1 1 1 -0.055479 0.337402 0.621418 -0.704927
 124 1 1 1 0.025911 0.394385 0.586907 -0.706632
 125 1 1 1 0.106958 0.447868 0.547188 -0.698971
 126 1 1 1 0.186586 0.497375 0.502611 -0.682045
 127 1 1 1 0.263742 0.542468 0.453573 -0.656079
 128 1 1 1 0.337402 0.582745 0.40051 -0.621418
 129 1 1 1 0.40659 0.61785 0.343891 -0.578519
 130 1 1 1 0.470389 0.647471 0.28422 -0.527953
 131 1 1 1 0.527953 0.671345 0.222026 -0.470389
 132 1 1 1 0.578519 0.68926 0.157862 -0.40659
 133 1 1 1 0.621418 0.701057 0.092296 -0.337402
 134 1 1 1 0.656079 0.706632 0.025911 -0.263742
 135 1 1 1 0.682045 0.705934 -0.0407039 -0.186586
 136 1 1 1 0.698971 0.698971 -0.106958 -0.106958
 137 1 1 1 0.706632 0.685803 -0.172262 -0.025911
 138 1 1 1 0.704927 0.666548 -0.236037 0.055479
 139 1 1 1 0.693879 0.641377 -0.297717 0.136134
 140 1 1 1 0.673633 0.610513 -0.356755 0.214984
 141 1 1 1 0.644459 0.57423 -0.412626 0.290985
 142 1 1 1 0.606744 0.53285 -0.464834 0.363129
 143 1 1 1 0.560986 0.48674 -0.512917 0.430459
 144 1 1 1 0.507792 0.43631 -0.556447 0.492085
 145 1 1 1 0.447868 0.382008 -0.595038 0.547188
 146 1 1 1 0.382008 0.324314 -0.628347 0.595038
 147 1 1 1 0.311084 0.263742 -0.656079 0.635001
 148 1 1 1 0.236037 0.200829 -0.677988 0.666548
 149 1 1 1 0.157862 0.136134 -0.693879 0.68926
 150 1 1 1 0.0775939 0.0702297 -0.703611 0.702837
 151 1 1 1 -0.00370239 0.00370239 -0.707097 0.707097
 152 1 1 1 -0.0849496 -0.0628578 -0.704307 0.701985
 153 1 1 1 -0.165071 -0.12886 -0.695266 0.687569
 154 1 1 1 -0.243004 -0.193718 -0.680054 0.66404
 155 1 1 1 -0.317717 -0.256857 -0.658805 0.631709
 156 1 1 1 -0.388218 -0.317717 -0.631709 0.591005
 157 1 1 1 -0.453573 -0.375756 -0.599006 0.542468
 158 1 1 1 -0.512917 -0.430459 -0.560986 0.48674
 159 1 1 1 -0.565462 -0.481342 -0.517986 0.424561
 160 1 1 1 -0.610513 -0.527953 -0.470389 0.356755
 161 1 1 1 -0.647471 -0.569877 -0.418617 0.28422
 162 1 1 1 -0.675848 -0.606744 -0.363129 0.207918
 163 1 1 1 -0.695266 -0.638224 -0.304417 0.12886
 164 1 1 1 -0.705469 -0.66404 -0.243004 0.0480941
 165 1 1 1 -0.706322 -0.683962 -0.179434 -0.0333093
 166 1 1 1 -0.697812 -0.697812 -0.114271 -0.114271
 167 1 1 1 -0.680054 -0.705469 -0.0480941 -0.193718
 168 1 1 1 -0.653281 -0.706864 0.0185099 -0.270598
 169 1 1 1 -0.61785 -0.701985 0.0849496 -0.343891
 170 1 1 1 -0.57423 -0.690876 0.150635 -0.412626
 171 1 1 1 -0.522998 -0.673633 0.214984 -0.475892
 172 1 1 1 -0.464834 -0.650412 0.277424 -0.53285
 173 1 1 1 -0.40051 -0.621418 0.337402 -0.582745
 174 1 1 1 -0.330876 -0.586907 0.394385 -0.624917
 175 1 1 1 -0.256857 -0.547188 0.447868 -0.658805
 176 1 1 1 -0.179434 -0.502611 0.497375 -0.683962
 177 1 1 1 -0.0996322 -0.453573 0.542468 -0.700052
 178 1 1 1 -0.0185099 -0.40051 0.582745 -0.706864
 179 1 1 1 0.0628578 -0.343891 0.61785 -0.704307
 180 1 1 1 0.143392 -0.28422 0.647471 -0.692415
 181 1 1 1 0.222026 -0.222026 0.671345 -0.671345
 182 1 1 1 0.297717 -0.157862 0.68926 -0.641377
 183 1 1 1 0.369462 -0.092296 0.701057 -0.602908
 184 1 1 1 0.43631 -0.025911 0.706632 -0.556447
 185 1 1 1 0.497375 0.0407039 0.705934 -0.502611
 186 1 1 1 0.551848 0.106958 0.698971 -0.442113
 187 1 1 1 0.599006 0.172262 0.685803 -0.375756
 188 1 1 1 0.638224 0.236037 0.666548 -0.304417
 189 1 1 1 0.668983 0.297717 0.641377 -0.229044
 190 1 1 1 0.690876 0.356755 0.610513 -0.150635
 191 1 1 1 0.703611 0.412626 0.57423 -0.0702297
 192 1 1 1 0.70702 0.464834 0.53285 0.0111068
 193 1 1 1 0.701057 0.512917 0.48674 0.092296
 194 1 1 1 0.685803 0.556447 0.43631 0.172262
 195 1 1 1 0.661459 0.595038 0.382008 0.249944
 196 1 1 1 0.628347 0.628347 0.324314 0.324314
 197 1 1 1 0.586907 0.656079 0.263742 0.394385
 198 1 1 1 0.537688 0.677988 0.200829 0.459229
 199 1 1 1 0.481342 0.693879 0.136134 0.517986
 200 1 1 1 0.418617 0.703611 0.0702297 0.569877
 201 1 1 1 0.350342 0.707097 0.00370239 0.614215
 202 1 1 1 0.277424 0.704307 -0.0628578 0.650412
 203 1 1 1 0.200829 0.695266 -0.12886 0.677988
 204 1 1 1 0.121572 0.680054 -0.193718 0.696577
 205 1 1 1 0.0407039 0.658805 -0.256857 0.705934
 206 1 1 1 -0.0407039 0.631709 -0.317717 0.705934
 207 1 1 1 -0.121572 0.599006 -0.375756 0.696577
 208 1 1 1 -0.200829 0.560986 -0.430459 0.677988
 209 1 1 1 -0.277424 0.517986 -0.481342 0.650412
 210 1 1 1 -0.350342 0.470389 -0.527953 0.614215
 211 1 1 1 -0.418617 0.418617 -0.569877 0.569877
 212 1 1 1 -0.481342 0.363129 -0.606744 0.517986
 213 1 1 1 -0.537688 0.304417 -0.638224 0.459229
 214 1 1 1 -0.586907 0.243004 -0.66404 0.394385
 215 1 1 1 -0.628347 0.179434 -0.683962 0.324314
 216 1 1 1 -0.661459 0.114271 -0.697812 0.249944
 217 1 1 1 -0.685803 0.0480941 -0.705469 0.172262
 218 1 1 1 -0.701057 -0.0185099 -0.706864 0.092296
 219 1 1 1 -0.70702 -0.0849496 -0.701985 0.0111068
 220 1 1 1 -0.703611 -0.150635 -0.690876 -0.0702297
 221 1 1 1 -0.690876 -0.214984 -0.673633 -0.150635
 222 1 1 1 -0.668983 -0.277424 -0.650412 -0.229044
 223 1 1 1 -0.638224 -0.337402 -0.621418 -0.304417
 224 1 1 1 -0.599006 -0.394385 -0.586907 -0.375756
 225 1 1 1 -0.551848 -0.447868 -0.547188 -0.442113
 226 1 1 1 -0.497375 -0.497375 -0.502611 -0.502611
 227 1 1 1 -0.43631 -0.542468 -0.453573 -0.556447
 228 1 1 1 -0.369462 -0.582745 -0.40051 -0.602908
 229 1 1 1 -0.297717 -0.61785 -0.343891 -0.641377
 230 1 1 1 -0.222026 -0.647471 -0.28422 -0.671345
 231 1 1 1 -0.143392 -0.671345 -0.222026 -0.692415
 232 1 1 1 -0.0628578 -0.68926 -0.157862 -0.704307
 233 1 1 1 0.0185099 -0.701057 -0.092296 -0.706864
 234 1 1 1 0.0996322 -0.706632 -0.025911 -0.700052
 235 1 1 1 0.179434 -0.705934 0.0407039 -0.683962
 236 1 1 1 0.256857 -0.698971 0.106958 -0.658805
 237 1 1 1 0.330876 -0.685803 0.172262 -0.624917
 238 1 1 1 0.40051 -0.666548 0.236037 -0.582745
 239 1 1 1 0.464834 -0.641377 0.297717 -0.53285
 240 1 1 1 0.522998 -0.610513 0.356755 -0.475892
 241 1 1 1 0.57423 -0.57423 0.412626 -0.412626
 242 1 1 1 0.61785 -0.53285 0.464834 -0.343891
 243 1 1 1 0.653281 -0.48674 0.512917 -0.270598
 244 1 1 1 0.680054 -0.43631 0.556447 -0.193718
 245 1 1 1 0.697812 -0.382008 0.595038 -0.114271
 246 1 1 1 0.706322 -0.324314 0.628347 -0.0333093
 247 1 1 1 0.705469 -0.263742 0.656079 0.0480941
 248 1 1 1 0.695266 -0.200829 0.677988 0.12886
 249 1 1 1 0.675848 -0.136134 0.693879 0.207918
 250 1 1 1 0.647471 -0.0702297 0.703611 0.28422
 251 1 1 1 0.610513 -0.00370239 0.707097 0.356755
 252 1 1 1 0.565462 0.0628578 0.704307 0.424561
 253 1 1 1 0.512917 0.12886 0.695266 0.48674
 254 1 1 1 0.453573 0.193718 0.680054 0.542468
 255 1 1 1 0.388218 0.256857 0.658805 0.591005
 256 1 1 1 0.317717 0.317717 0.631709 0.631709
 257 1 1 1 0.243004 0.375756 0.599006 0.66404
 258 1 1 1 0.165071 0.430459 0.560986 0.687569
 259 1 1 1 0.0849496 0.481342 0.517986 0.701985
 260 1 1 1 0.00370239 0.527953 0.470389 0.707097
 261 1 1 1 -0.0775939 0.569877 0.418617 0.702837
 262 1 1 1 -0.157862 0.606744 0.363129 0.68926
 263 1 1 1 -0.236037 0.638224 0.304417 0.666548
 264 1 1 1 -0.311084 0.66404 0.243004 0.635001
 265 1 1 1 -0.382008 0.683962 0.179434 0.595038
 266 1 1 1 -0.447868 0.697812 0.114271 0.547188
 267 1 1 1 -0.507792 0.705469 0.0480941 0.492085
 268 1 1 1 -0.560986 0.706864 -0.0185099 0.430459
 269 1 1 1 -0.606744 0.701985 -0.0849496 0.363129
 270 1 1 1 -0.644459 0.690876 -0.150635 0.290985
 271 1 1 1 -0.673633 0.673633 -0.214984 0.214984
 272 1 1 1 -0.693879 0.650412 -0.277424 0.136134
 273 1 1 1 -0.704927 0.621418 -0.337402 0.055479
 274 1 1 1 -0.706632 0.586907 -0.394385 -0.025911
 275 1 1 1 -0.698971 0.547188 -0.447868 -0.106958
 276 1 1 1 -0.682045 0.502611 -0.497375 -0.186586
 277 1 1 1 -0.656079 0.453573 -0.542468 -0.263742
 278 1 1 1 -0.621418 0.40051 -0.582745 -0.337402
 279 1 1 1 -0.578519 0.343891 -0.61785 -0.40659
 280 1 1 1 -0.527953 0.28422 -0.647471 -0.470389
 281 1 1 1 -0.470389 0.222026 -0.671345 -0.527953
 282 1 1 1 -0.40659 0.157862 -0.68926 -0.578519
 283 1 1 1 -0.337402 0.092296 -0.701057 -0.621418
 284 1 1 1 -0.263742 0.025911 -0.706632 -0.656079
 285 1 1 1 -0.186586 -0.0407039 -0.705934 -0.682045
 286 1 1 1 -0.106958 -0.106958 -0.698971 -0.698971
 287 1 1 1 -0.025911 -0.172262 -0.685803 -0.706632
 288 1 1 1 0.055479 -0.236037 -0.666548 -0.704927
 289 1 1 1 0.136134 -0.297717 -0.641377 -0.693879
 290 1 1 1 0.214984 -0.356755 -0.610513 -0.673633
 291 1 1 1 0.290985 -0.412626 -0.57423 -0.644459
 292 1 1 1 0.363129 -0.464834 -0.53285 -0.606744
 293 1 1 1 0.430459 -0.512917 -0.48674 -0.560986
 294 1 1 1 0.492085 -0.556447 -0.43631 -0.507792
 295 1 1 1 0.547188 -0.595038 -0.382008 -0.447868
 296 1 1 1 0.595038 -0.628347 -0.324314 -0.382008
 297 1 1 1 0.635001 -0.656079 -0.263742 -0.311084
 298 1 1 1 0.666548 -0.677988 -0.200829 -0.236037
 299 1 1 1 0.68926 -0.693879 -0.136134 -0.157862
 300 1 1 1 0.702837 -0.703611 -0.0702297 -0.0775939

 Velocities

 1 0 0 0 0 0 0
 2 0 0 0 0 0 0
 3 0 0 0 0 0 0
 4 0 0 0 0 0 0
 5 0 0 0 0 0 0
 6 0 0 0 0 0 0
 7 0 0 0 0 0 0
 8 0 0 0 0 0 0
 9 0 0 0 0 0 0
 10 0 0 0 0 0 0
 11 0 0 0 0 0 0
 12 0 0 0 0 0 0
 13 0 0 0 0 0 0
 14 0 0 0 0 0 0
 15 0 0 0 0 0 0
 16 0 0 0 0 0 0
 17 0 0 0 0 0 0
 18 0 0 0 0 0 0
 19 0 0 0 0 0 0
 20 0 0 0 0 0 0
 21 0 0 0 0 0 0
 22 0 0 0 0 0 0
 23 0 0 0 0 0 0
 24 0 0 0 0 0 0
 25 0 0 0 0 0 0
 26 0 0 0 0 0 0
 27 0 0 0 0 0 0
 28 0 0 0 0 0 0
 29 0 0 0 0 0 0
 30 0 0 0 0 0 0
 31 0 0 0 0 0 0
 32 0 0 0 0 0 0
 33 0 0 0 0 0 0
 34 0 0 0 0 0 0
 35 0 0 0 0 0 0
 36 0 0 0 0 0 0
 37 0 0 0 0 0 0
 38 0 0 0 0 0 0
 39 0 0 0 0 0 0
 40 0 0 0 0 0 0
 41 0 0 0 0 0 0
 42 0 0 0 0 0 0
 43 0 0 0 0 0 0
 44 0 0 0 0 0 0
 45 0 0 0 0 0 0
 46 0 0 0 0 0 0
 47 0 0 0 0 0 0
 48 0 0 0 0 0 0
 49 0 0 0 0 0 0
 50 0 0 0 0 0 0
 51 0 0 0 0 0 0
 52 0 0 0 0 0 0
 53 0 0 0 0 0 0
 54 0 0 0 0 0 0
 55 0 0 0 0 0 0
 56 0 0 0 0 0 0
 57 0 0 0 0 0 0
 58 0 0 0 0 0 0
 59 0 0 0 0 0 0
 60 0 0 0 0 0 0
 61 0 0 0 0 0 0
 62 0 0 0 0 0 0
 63 0 0 0 0 0 0
 64 0 0 0 0 0 0
 65 0 0 0 0 0 0
 66 0 0 0 0 0 0
 67 0 0 0 0 0 0
 68 0 0 0 0 0 0
 69 0 0 0 0 0 0
 70 0 0 0 0 0 0
 71 0 0 0 0 0 0
 72 0 0 0 0 0 0
 73 0 0 0 0 0 0
 74 0 0 0 0 0 0
 75 0 0 0 0 0 0
 76 0 0 0 0 0 0
 77 0 0 0 0 0 0
 78 0 0 0 0 0 0
 79 0 0 0 0 0 0
 80 0 0 0 0 0 0
 81 0 0 0 0 0 0
 82 0 0 0 0 0 0
 83 0 0 0 0 0 0
 84 0 0 0 0 0 0
 85 0 0 0 0 0 0
 86 0 0 0 0 0 0
 87 0 0 0 0 0 0
 88 0 0 0 0 0 0
 89 0 0 0 0 0 0
 90 0 0 0 0 0 0
 91 0 0 0 0 0 0
 92 0 0 0 0 0 0
 93 0 0 0 0 0 0
 94 0 0 0 0 0 0
 95 0 0 0 0 0 0
 96 0 0 0 0 0 0
 97 0 0 0 0 0 0
 98 0 0 0 0 0 0
 99 0 0 0 0 0 0
 100 0 0 0 0 0 0
 101 0 0 0 0 0 0
 102 0 0 0 0 0 0
 103 0 0 0 0 0 0
 104 0 0 0 0 0 0
 105 0 0 0 0 0 0
 106 0 0 0 0 0 0
 107 0 0 0 0 0 0
 108 0 0 0 0 0 0
 109 0 0 0 0 0 0
 110 0 0 0 0 0 0
 111 0 0 0 0 0 0
 112 0 0 0 0 0 0
 113 0 0 0 0 0 0
 114 0 0 0 0 0 0
 115 0 0 0 0 0 0
 116 0 0 0 0 0 0
 117 0 0 0 0 0 0
 118 0 0 0 0 0 0
 119 0 0 0 0 0 0
 120 0 0 0 0 0 0
 121 0 0 0 0 0 0
 122 0 0 0 0 0 0
 123 0 0 0 0 0 0
 124 0 0 0 0 0 0
 125 0 0 0 0 0 0
 126 0 0 0 0 0 0
 127 0 0 0 0 0 0
 128 0 0 0 0 0 0
 129 0 0 0 0 0 0
 130 0 0 0 0 0 0
 131 0 0 0 0 0 0
 132 0 0 0 0 0 0
 133 0 0 0 0 0 0
 134 0 0 0 0 0 0
 135 0 0 0 0 0 0
 136 0 0 0 0 0 0
 137 0 0 0 0 0 0
 138 0 0 0 0 0 0
 139 0 0 0 0 0 0
 140 0 0 0 0 0 0
 141 0 0 0 0 0 0
 142 0 0 0 0 0 0
 143 0 0 0 0 0 0
 144 0 0 0 0 0 0
 145 0 0 0 0 0 0
 146 0 0 0 0 0 0
 147 0 0 0 0 0 0
 148 0 0 0 0 0 0
 149 0 0 0 0 0 0
 150 0 0 0 0 0 0
 151 0 0 0 0 0 0
 152 0 0 0 0 0 0
 153 0 0 0 0 0 0
 154 0 0 0 0 0 0
 155 0 0 0 0 0 0
 156 0 0 0 0 0 0
 157 0 0 0 0 0 0
 158 0 0 0 0 0 0
 159 0 0 0 0 0 0
 160 0 0 0 0 0 0
 161 0 0 0 0 0 0
 162 0 0 0 0 0 0
 163 0 0 0 0 0 0
 164 0 0 0 0 0 0
 165 0 0 0 0 0 0
 166 0 0 0 0 0 0
 167 0 0 0 0 0 0
 168 0 0 0 0 0 0
 169 0 0 0 0 0 0
 170 0 0 0 0 0 0
 171 0 0 0 0 0 0
 172 0 0 0 0 0 0
 173 0 0 0 0 0 0
 174 0 0 0 0 0 0
 175 0 0 0 0 0 0
 176 0 0 0 0 0 0
 177 0 0 0 0 0 0
 178 0 0 0 0 0 0
 179 0 0 0 0 0 0
 180 0 0 0 0 0 0
 181 0 0 0 0 0 0
 182 0 0 0 0 0 0
 183 0 0 0 0 0 0
 184 0 0 0 0 0 0
 185 0 0 0 0 0 0
 186 0 0 0 0 0 0
 187 0 0 0 0 0 0
 188 0 0 0 0 0 0
 189 0 0 0 0 0 0
 190 0 0 0 0 0 0
 191 0 0 0 0 0 0
 192 0 0 0 0 0 0
 193 0 0 0 0 0 0
 194 0 0 0 0 0 0
 195 0 0 0 0 0 0
 196 0 0 0 0 0 0
 197 0 0 0 0 0 0
 198 0 0 0 0 0 0
 199 0 0 0 0 0 0
 200 0 0 0 0 0 0
 201 0 0 0 0 0 0
 202 0 0 0 0 0 0
 203 0 0 0 0 0 0
 204 0 0 0 0 0 0
 205 0 0 0 0 0 0
 206 0 0 0 0 0 0
 207 0 0 0 0 0 0
 208 0 0 0 0 0 0
 209 0 0 0 0 0 0
 210 0 0 0 0 0 0
 211 0 0 0 0 0 0
 212 0 0 0 0 0 0
 213 0 0 0 0 0 0
 214 0 0 0 0 0 0
 215 0 0 0 0 0 0
 216 0 0 0 0 0 0
 217 0 0 0 0 0 0
 218 0 0 0 0 0 0
 219 0 0 0 0 0 0
 220 0 0 0 0 0 0
 221 0 0 0 0 0 0
 222 0 0 0 0 0 0
 223 0 0 0 0 0 0
 224 0 0 0 0 0 0
 225 0 0 0 0 0 0
 226 0 0 0 0 0 0
 227 0 0 0 0 0 0
 228 0 0 0 0 0 0
 229 0 0 0 0 0 0
 230 0 0 0 0 0 0
 231 0 0 0 0 0 0
 232 0 0 0 0 0 0
 233 0 0 0 0 0 0
 234 0 0 0 0 0 0
 235 0 0 0 0 0 0
 236 0 0 0 0 0 0
 237 0 0 0 0 0 0
 238 0 0 0 0 0 0
 239 0 0 0 0 0 0
 240 0 0 0 0 0 0
 241 0 0 0 0 0 0